# vtk DataFile Version 3.1
this is an example file created for VisuSimple
ASCII
DATASET UNSTRUCTURED_GRID
POINTS 9 FLOAT
0 0 0
0 1 0
0 2 0
1 2 0
1 1 0
1 0 0
2 0 0
2 1 0
2 2 0

CELLS 4 20
4 0 5 4 1
4 1 4 3 2
4 5 6 7 4
4 4 7 8 3

CELL_TYPES 4
9 9 9 9

CELL_DATA 4
SCALARS DatosEnCeldas float
LOOKUP_TABLE default
0
1
2
0
